 Gaussian 09, Revision C.01,
 Gaussian 09:  EM64L-G09RevC.01 23-Sep-2011

 -------------------------
 # opt freq um062x/cc-pvtz
 -------------------------

 99/9=1/99;
 ----------
 s1_3_3_ane
 ----------
 Charge =  0 Multiplicity = 1

 SCF Done:  E(UM062X) =  -195.250060572     A.U. after   13 cycles
 SCF Done:  E(UM062X) =  -195.251060428     A.U. after   11 cycles
 SCF Done:  E(UM062X) =  -195.251131549     A.U. after    8 cycles
 Optimization completed.
    -- Stationary point found.
 Normal termination of Gaussian 09 at Wed Mar  9 08:31:23 2016.

 -------------------------------------------------------------------
 #N Geom=AllCheck Guess=TCheck SCRF=Check GenChk UM062X/CC-pVTZ Freq
 -------------------------------------------------------------------

 Structure from the checkpoint file:  s1_3_3_ane.chk
 ----------
 s1_3_3_ane
 ----------
 Charge =  0 Multiplicity = 1

                         Standard orientation:
 ---------------------------------------------------------------------
 Center     Atomic      Atomic             Coordinates (Angstroms)
 Number     Number       Type             X           Y           Z
 ---------------------------------------------------------------------
      1          6           0        1.262826   -0.540318    0.534956
      2          6           0        0.000000    0.000005   -0.000004
      3          6           0        1.262836    0.540315   -0.534953
      4          6           0       -1.262831   -0.535008   -0.540263
      5          6           0       -1.262832    0.535008    0.540262
      6          1           0        1.562184   -1.534995    0.236361
      7          1           0        1.562340   -0.251945    1.532592
      8          1           0        1.562199    1.534989   -0.236355
      9          1           0        1.562354    0.251940   -1.532587
     10          1           0       -1.562200   -1.532581   -0.251507
     11          1           0       -1.562334   -0.236791   -1.535005
     12          1           0       -1.562323    0.236794    1.535009
     13          1           0       -1.562214    1.532576    0.251504
 ---------------------------------------------------------------------

 SCF Done:  E(UM062X) =  -195.251131549     A.U. after    1 cycles

 The electronic state is 1-A.
 Alpha  occ. eigenvalues --  -10.54736 -10.53573 -10.53572 -10.53535 -10.53535
 Alpha  occ. eigenvalues --   -0.98521  -0.89344  -0.68786  -0.68785  -0.61865
 Alpha  occ. eigenvalues --   -0.55482  -0.54478  -0.54478  -0.43476  -0.42009
 Alpha  occ. eigenvalues --   -0.41081  -0.34294  -0.34293  -0.32733
 Alpha virt. eigenvalues --    0.08424   0.09489   0.09489   0.10189   0.12807
 Alpha virt. eigenvalues --    0.12809   0.16521   0.16684   0.19134   0.20173
 Alpha virt. eigenvalues --    0.20174   0.22876   0.25629   0.25630   0.31099

  Beta  occ. eigenvalues --  -10.54736 -10.53573 -10.53572 -10.53535 -10.53535
  Beta  occ. eigenvalues --   -0.98521  -0.89344  -0.68786  -0.68785  -0.61865
  Beta  occ. eigenvalues --   -0.55482  -0.54478  -0.54478  -0.43476  -0.42009
  Beta  occ. eigenvalues --   -0.41081  -0.34294  -0.34293  -0.32733
  Beta virt. eigenvalues --    0.08424   0.09489   0.09489   0.10189   0.12807
  Beta virt. eigenvalues --    0.12809   0.16521   0.16684   0.19134   0.20173
  Beta virt. eigenvalues --    0.20174   0.22876   0.25629   0.25630   0.31099

 Mulliken atomic charges:
              1
     1  C   -0.290046
     2  C    0.108345
     3  C   -0.290042
     4  C   -0.290044
     5  C   -0.290044
     6  H    0.131471
     7  H    0.131487
     8  H    0.131471
     9  H    0.131487
    10  H    0.131478
    11  H    0.131480
    12  H    0.131480
    13  H    0.131478
 Sum of Mulliken atomic charges =   0.00000

 Dipole moment (field-independent basis, Debye):
    X=              0.0000    Y=              0.0000    Z=              0.0000  Tot=              0.0000
 Quadrupole moment (field-independent basis, Debye-Ang):
   XX=            -32.8816   YY=            -30.8826   ZZ=            -30.8811
   XY=              0.0000   XZ=              0.0000   YZ=              0.0000

  Exact polarizability:  61.916   0.000  51.521   0.000   0.000  51.520
 Approx polarizability:  68.393   0.000  62.306   0.000   0.000  62.306

                     1                      2                      3
                     A                      A                      A
 Frequencies --   293.5706               299.3739               299.4210
 Red. masses --     1.7726                 2.3920                 2.3918
 Frc consts  --     0.0900                 0.1263                 0.1263
 IR Inten    --     0.0000                 0.1988                 0.1991

                     4                      5                      6
                     A                      A                      A
 Frequencies --   625.0605               793.3353               793.3378
 Red. masses --     3.6484                 1.0282                 1.0282
 Frc consts  --     0.8398                 0.3813                 0.3813
 IR Inten    --     0.0000                 0.5497                 0.5501

                     7                      8                      9
                     A                      A                      A
 Frequencies --   851.2956               913.0253               913.0304
 Red. masses --     1.1016                 2.0472                 2.0467
 Frc consts  --     0.4704                 1.0055                 1.0053
 IR Inten    --     0.0000                 6.3436                 6.3433

                    10                     11                     12
                     A                      A                      A
 Frequencies --   945.0523              1009.0705              1028.4965
 Red. masses --     4.3815                 1.2004                 1.1642
 Frc consts  --     2.3056                 0.7201                 0.7256
 IR Inten    --    23.1457                12.1414                 0.0003

                    13                     14                     15
                     A                      A                      A
 Frequencies --  1055.2234              1075.7367              1075.7448
 Red. masses --     1.2384                 1.4481                 1.4482
 Frc consts  --     0.8124                 0.9873                 0.9874
 IR Inten    --     0.0000                 1.2511                 1.2483

                    16                     17                     18
                     A                      A                      A
 Frequencies --  1105.1530              1169.7399              1179.4826
 Red. masses --     3.6266                 1.2486                 1.3421
 Frc consts  --     2.6097                 1.0066                 1.1000
 IR Inten    --     0.0000                 0.0000                 0.0000

                    19                     20                     21
                     A                      A                      A
 Frequencies --  1192.4198              1192.4365              1443.7291
 Red. masses --     2.1924                 2.1927                 1.1839
 Frc consts  --     1.8366                 1.8370                 1.4539
 IR Inten    --     2.0876                 2.0943                 0.0680

                    22                     23                     24
                     A                      A                      A
 Frequencies --  1466.4826              1466.4846              1501.3220
 Red. masses --     1.0921                 1.0921                 1.1903
 Frc consts  --     1.3838                 1.3838                 1.5807
 IR Inten    --     1.8145                 1.8202                 0.0000

                    25                     26                     27
                     A                      A                      A
 Frequencies --  1618.1448              3141.1126              3141.1147
 Red. masses --     5.4069                 1.0497                 1.0497
 Frc consts  --     8.3413                 6.1019                 6.1019
 IR Inten    --     1.2661                16.5247                16.5081

                    28                     29                     30
                     A                      A                      A
 Frequencies --  3143.8446              3144.3519              3222.5592
 Red. masses --     1.0572                 1.0584                 1.1213
 Frc consts  --     6.1564                 6.1654                 6.8606
 IR Inten    --     0.0001                24.7490                 0.0007

                    31                     32                     33
                     A                      A                      A
 Frequencies --  3223.9620              3234.8058              3234.8081
 Red. masses --     1.1192                 1.1171                 1.1171
 Frc consts  --     6.8537                 6.8870                 6.8870
 IR Inten    --     0.0000                12.1018                12.0905

 - Thermochemistry -
 -------------------
 Temperature   298.150 Kelvin.  Pressure   1.00000 Atm.
 Atom     1 has atomic number  6 and mass  12.00000

 Molecular mass:    68.06260 amu.
 Principal axes and moments of inertia in atomic units:
                           1         2         3
     Eigenvalues --   168.54760 427.89647 427.90892
           X            1.00000   0.00000   0.00000
           Y            0.00000   1.00000  -0.00091
           Z            0.00000   0.00091   1.00000
 This molecule is an asymmetric top.
 Rotational symmetry number  1.
 Rotational temperatures (Kelvin)      0.51388     0.20242     0.20241
 Rotational constants (GHZ):          10.70761     4.21771     4.21758
 Zero-point vibrational energy     303808.0 (Joules/Mol)
                                   72.61185 (Kcal/Mol)
 Warning -- explicit consideration of   3 degrees of freedom as
           vibrations may cause significant error
 Vibrational temperatures:    422.38   430.73   430.80   899.32  1141.43
          (Kelvin)           1141.43  1224.82  1313.64  1313.65  1359.72
                             1451.83  1479.78  1518.23  1547.74  1547.75
                             1590.07  1682.99  1697.01  1715.62  1715.65
                             2077.20  2109.94  2109.94  2160.06  2328.15
                             4519.35  4519.36  4523.29  4524.02  4636.54
                             4638.56  4654.16  4654.16

 Zero-point correction=                           0.115714 (Hartree/Particle)
 Thermal correction to Energy=                    0.120612
 Thermal correction to Enthalpy=                  0.121556
 Thermal correction to Gibbs Free Energy=         0.088357
 Sum of electronic and zero-point Energies=           -195.135417
 Sum of electronic and thermal Energies=              -195.130519
 Sum of electronic and thermal Enthalpies=            -195.129575
 Sum of electronic and thermal Free Energies=         -195.162774

                     E (Thermal)             CV                S
                      KCal/Mol        Cal/Mol-Kelvin    Cal/Mol-Kelvin
 Total                   75.685             18.437             69.873
 Electronic               0.000              0.000              0.000
 Translational            0.889              2.981             38.571
 Rotational               0.889              2.981             24.938
 Vibrational             73.908             12.476              6.364
 Vibration     1          0.688              1.686              1.453
 Vibration     2          0.692              1.675              1.420
 Vibration     3          0.692              1.675              1.420

 Optimization completed.
    -- Stationary point found.
 Normal termination of Gaussian 09 at Wed Mar  9 08:36:40 2016.
